12544637
  -OEChem-12302502582D

  8  6  0     0  0  0  0  0  0999 V2000
    0.5369    0.6200    0.0000 B   0  0  0  0  0  0  0  0  0  0  0  0
    0.5369    3.5500    0.0000 B   0  0  0  0  0  0  0  0  0  0  0  0
    1.0739    0.9300    0.0000 H   0  0  0  0  0  0  0  0  0  0  0  0
    0.0000    0.9300    0.0000 H   0  0  0  0  0  0  0  0  0  0  0  0
    0.5369    0.0000    0.0000 H   0  0  0  0  0  0  0  0  0  0  0  0
    1.0739    3.8600    0.0000 H   0  0  0  0  0  0  0  0  0  0  0  0
    0.0000    3.8600    0.0000 H   0  0  0  0  0  0  0  0  0  0  0  0
    0.5369    2.9300    0.0000 H   0  0  0  0  0  0  0  0  0  0  0  0
  1  3  1  0  0  0  0
  1  4  1  0  0  0  0
  1  5  1  0  0  0  0
  2  6  1  0  0  0  0
  2  7  1  0  0  0  0
  2  8  1  0  0  0  0
M  END
> <PUBCHEM_COMPOUND_CID>
12544637

> <PUBCHEM_COMPOUND_CANONICALIZED>
1

> <PUBCHEM_CACTVS_COMPLEXITY>
0

> <PUBCHEM_CACTVS_HBOND_ACCEPTOR>
0

> <PUBCHEM_CACTVS_HBOND_DONOR>
0

> <PUBCHEM_CACTVS_ROTATABLE_BOND>
0

> <PUBCHEM_CACTVS_SUBSKEYS>
AAADcYMAAAAAAAAAAAAAAAAAAAAAAAAAAAAAAAAAAAAAAAAAAACAAAAAAAAAAAAAAAAAAAAAAAAAAAAAAAAAAAAAAAAAAAAAAAAAAAAAAAAAAAAAAAAAAAAAAAAAAAAAAAAAAAAAAAAAAAAAAAAAAAAAAA==

> <PUBCHEM_IUPAC_OPENEYE_NAME>
borane

> <PUBCHEM_IUPAC_CAS_NAME>
borane

> <PUBCHEM_IUPAC_NAME_MARKUP>
borane

> <PUBCHEM_IUPAC_NAME>
borane

> <PUBCHEM_IUPAC_SYSTEMATIC_NAME>
borane

> <PUBCHEM_IUPAC_TRADITIONAL_NAME>
borane

> <PUBCHEM_IUPAC_INCHI>
InChI=1S/2BH3/h2*1H3

> <PUBCHEM_IUPAC_INCHIKEY>
NTJHUEGHVSASEP-UHFFFAOYSA-N

> <PUBCHEM_EXACT_MASS>
28.0655605

> <PUBCHEM_MOLECULAR_FORMULA>
B2H6

> <PUBCHEM_MOLECULAR_WEIGHT>
27.67

> <PUBCHEM_SMILES>
B.B

> <PUBCHEM_CONNECTIVITY_SMILES>
B.B

> <PUBCHEM_CACTVS_TPSA>
0

> <PUBCHEM_MONOISOTOPIC_WEIGHT>
28.0655605

> <PUBCHEM_TOTAL_CHARGE>
0

> <PUBCHEM_HEAVY_ATOM_COUNT>
2

> <PUBCHEM_ATOM_DEF_STEREO_COUNT>
0

> <PUBCHEM_ATOM_UDEF_STEREO_COUNT>
0

> <PUBCHEM_BOND_DEF_STEREO_COUNT>
0

> <PUBCHEM_BOND_UDEF_STEREO_COUNT>
0

> <PUBCHEM_ISOTOPIC_ATOM_COUNT>
0

> <PUBCHEM_COMPONENT_COUNT>
2

> <PUBCHEM_CACTVS_TAUTO_COUNT>
-1

> <PUBCHEM_COORDINATE_TYPE>
1
5
255

$$$$
